<?xml version="1.0"?>
<VTKFile type="UnstructuredGrid" version="1.0" byte_order="LittleEndian" header_type="UInt32">
  <UnstructuredGrid>
    <Piece  NumberOfPoints="9" NumberOfCells="4">
      <PointData  Scalars="" Vectors="">
      </PointData> 
      <CellData  Scalars="PID " Vectors="">
        <DataArray type="Int16" Name="PID" NumberOfComponents="1" format="ascii" >
0 1 2 3 
        </DataArray>
      </CellData> 
      <Points>
        <DataArray type="Float64" Name="Points" NumberOfComponents="3" format="ascii" >
-5.00000000e-01 -5.00000000e-01 0.00000000e+00 0.00000000e+00 -5.00000000e-01 0.00000000e+00 -5.00000000e-01 0.00000000e+00 0.00000000e+00 5.00000000e-01 -5.00000000e-01 0.00000000e+00 0.00000000e+00 0.00000000e+00 0.00000000e+00 -5.00000000e-01 5.00000000e-01 0.00000000e+00 5.00000000e-01 5.00000000e-01 0.00000000e+00 0.00000000e+00 5.00000000e-01 0.00000000e+00 
5.00000000e-01 0.00000000e+00 0.00000000e+00 
        </DataArray>
      </Points>
      <Cells>
        <DataArray type="UInt64" Name="offsets" NumberOfComponents="1" format="ascii" >
4 8 12 16 
        </DataArray>
        <DataArray type="UInt8" Name="types" NumberOfComponents="1" format="ascii" >
9 9 9 9 
        </DataArray>
        <DataArray type="Int32" Name="connectivity" NumberOfComponents="1" format="ascii" >
0 1 4 2 
1 3 8 4 
4 8 6 7 
2 4 7 5 
        </DataArray>
      </Cells>
    </Piece>
  </UnstructuredGrid>
  <AppendedData encoding="raw">
_
</VTKFile>
